Variables=  "s" "x" "y" "z" "scale" "rot_x" "rot_y" "rot_z" "rot_axis"
zone T="guide-curve"  i= 161 
0.000000 24.772000 4.470000 -2.500000 12.191000 0.000000 0.000000 -4.318000 0.000000 
0.002777 24.828952 4.470891 -2.575000 12.146655 0.000000 0.000000 -4.294024 0.000000 
0.005554 24.885904 4.471780 -2.650000 12.102311 0.000000 0.000000 -4.270017 0.000000 
0.008330 24.942856 4.472667 -2.725000 12.057966 0.000000 0.000000 -4.245949 0.000000 
0.011107 24.999808 4.473549 -2.800000 12.013621 0.000000 0.000000 -4.221790 0.000000 
0.013884 25.056760 4.474426 -2.875000 11.969276 0.000000 0.000000 -4.197509 0.000000 
0.016661 25.113712 4.475296 -2.950000 11.924930 0.000000 0.000000 -4.173076 0.000000 
0.019437 25.170663 4.476159 -3.025000 11.880584 0.000000 0.000000 -4.148461 0.000000 
0.022214 25.227615 4.477011 -3.100000 11.836237 0.000000 0.000000 -4.123632 0.000000 
0.024991 25.284566 4.477853 -3.175000 11.791889 0.000000 0.000000 -4.098561 0.000000 
0.027768 25.341516 4.478682 -3.250000 11.747541 0.000000 0.000000 -4.073215 0.000000 
0.030545 25.398467 4.479498 -3.325000 11.703192 0.000000 0.000000 -4.047565 0.000000 
0.033321 25.455417 4.480298 -3.400000 11.658842 0.000000 0.000000 -4.021580 0.000000 
0.036098 25.512366 4.481083 -3.475000 11.614491 0.000000 0.000000 -3.995230 0.000000 
0.038875 25.569315 4.481849 -3.550000 11.570139 0.000000 0.000000 -3.968484 0.000000 
0.041652 25.626264 4.482597 -3.625000 11.525786 0.000000 0.000000 -3.941313 0.000000 
0.044429 25.683212 4.483324 -3.700000 11.481432 0.000000 0.000000 -3.913685 0.000000 
0.047205 25.740160 4.484029 -3.775000 11.437076 0.000000 0.000000 -3.885570 0.000000 
0.049982 25.797107 4.484711 -3.850000 11.392719 0.000000 0.000000 -3.856938 0.000000 
0.052759 25.854054 4.485368 -3.925000 11.348360 0.000000 0.000000 -3.827758 0.000000 
0.055536 25.911000 4.486000 -4.000000 11.304000 0.000000 0.000000 -3.798000 0.000000 
0.062942 26.062883 4.487558 -4.200000 11.185676 0.000000 0.000000 -3.715739 0.000000 
0.070348 26.214764 4.488957 -4.400000 11.067346 0.000000 0.000000 -3.629584 0.000000 
0.077754 26.366643 4.490234 -4.600000 10.949019 0.000000 0.000000 -3.539970 0.000000 
0.085161 26.518523 4.491425 -4.800000 10.830699 0.000000 0.000000 -3.447331 0.000000 
0.092567 26.670404 4.492565 -5.000000 10.712393 0.000000 0.000000 -3.352105 0.000000 
0.099973 26.822289 4.493691 -5.200000 10.594109 0.000000 0.000000 -3.254724 0.000000 
0.107379 26.974180 4.494837 -5.400000 10.475852 0.000000 0.000000 -3.155626 0.000000 
0.114786 27.126078 4.496041 -5.600000 10.357629 0.000000 0.000000 -3.055244 0.000000 
0.122192 27.277984 4.497338 -5.800000 10.239447 0.000000 0.000000 -2.954015 0.000000 
0.129598 27.429901 4.498764 -6.000000 10.121312 0.000000 0.000000 -2.852373 0.000000 
0.137004 27.581829 4.500354 -6.200000 10.003231 0.000000 0.000000 -2.750753 0.000000 
0.144410 27.733771 4.502145 -6.400000 9.885210 0.000000 0.000000 -2.649591 0.000000 
0.151817 27.885729 4.504173 -6.600000 9.767256 0.000000 0.000000 -2.549322 0.000000 
0.159223 28.037704 4.506472 -6.800000 9.649376 0.000000 0.000000 -2.450382 0.000000 
0.166629 28.189697 4.509080 -7.000000 9.531575 0.000000 0.000000 -2.353204 0.000000 
0.174035 28.341710 4.512033 -7.200000 9.413861 0.000000 0.000000 -2.258226 0.000000 
0.181442 28.493746 4.515365 -7.400000 9.296240 0.000000 0.000000 -2.165881 0.000000 
0.188848 28.645805 4.519113 -7.600000 9.178718 0.000000 0.000000 -2.076604 0.000000 
0.196254 28.797889 4.523313 -7.800000 9.061303 0.000000 0.000000 -1.990833 0.000000 
0.203660 28.950000 4.528000 -8.000000 8.944000 0.000000 0.000000 -1.909000 0.000000 
0.208979 29.059250 4.531550 -8.143500 8.859800 0.000000 0.000000 -1.851750 0.000000 
0.214298 29.168500 4.535100 -8.287000 8.775600 0.000000 0.000000 -1.794500 0.000000 
0.219617 29.277750 4.538650 -8.430500 8.691400 0.000000 0.000000 -1.737250 0.000000 
0.224936 29.387000 4.542200 -8.574000 8.607200 0.000000 0.000000 -1.680000 0.000000 
0.230255 29.496250 4.545750 -8.717500 8.523000 0.000000 0.000000 -1.622750 0.000000 
0.235573 29.605500 4.549300 -8.861000 8.438800 0.000000 0.000000 -1.565500 0.000000 
0.240892 29.714750 4.552850 -9.004500 8.354600 0.000000 0.000000 -1.508250 0.000000 
0.246211 29.824000 4.556400 -9.148000 8.270400 0.000000 0.000000 -1.451000 0.000000 
0.251530 29.933250 4.559950 -9.291500 8.186200 0.000000 0.000000 -1.393750 0.000000 
0.256849 30.042500 4.563500 -9.435000 8.102000 0.000000 0.000000 -1.336500 0.000000 
0.262168 30.151750 4.567050 -9.578500 8.017800 0.000000 0.000000 -1.279250 0.000000 
0.267486 30.261000 4.570600 -9.722000 7.933600 0.000000 0.000000 -1.222000 0.000000 
0.272805 30.370250 4.574150 -9.865500 7.849400 0.000000 0.000000 -1.164750 0.000000 
0.278124 30.479500 4.577700 -10.009000 7.765200 0.000000 0.000000 -1.107500 0.000000 
0.283443 30.588750 4.581250 -10.152500 7.681000 0.000000 0.000000 -1.050250 0.000000 
0.288762 30.698000 4.584800 -10.296000 7.596800 0.000000 0.000000 -0.993000 0.000000 
0.294081 30.807250 4.588350 -10.439500 7.512600 0.000000 0.000000 -0.935750 0.000000 
0.299400 30.916500 4.591900 -10.583000 7.428400 0.000000 0.000000 -0.878500 0.000000 
0.304718 31.025750 4.595450 -10.726500 7.344200 0.000000 0.000000 -0.821250 0.000000 
0.310037 31.135000 4.599000 -10.870000 7.260000 0.000000 0.000000 -0.764000 0.000000 
0.313986 31.216100 4.603300 -10.976500 7.233900 0.000000 0.000000 -0.717100 0.000000 
0.317935 31.297200 4.607600 -11.083000 7.207800 0.000000 0.000000 -0.670200 0.000000 
0.321884 31.378300 4.611900 -11.189500 7.181700 0.000000 0.000000 -0.623300 0.000000 
0.325833 31.459400 4.616200 -11.296000 7.155600 0.000000 0.000000 -0.576400 0.000000 
0.329782 31.540500 4.620500 -11.402500 7.129500 0.000000 0.000000 -0.529500 0.000000 
0.333732 31.621600 4.624800 -11.509000 7.103400 0.000000 0.000000 -0.482600 0.000000 
0.337681 31.702700 4.629100 -11.615500 7.077300 0.000000 0.000000 -0.435700 0.000000 
0.341630 31.783800 4.633400 -11.722000 7.051200 0.000000 0.000000 -0.388800 0.000000 
0.345579 31.864900 4.637700 -11.828500 7.025100 0.000000 0.000000 -0.341900 0.000000 
0.349528 31.946000 4.642000 -11.935000 6.999000 0.000000 0.000000 -0.295000 0.000000 
0.353477 32.027100 4.646300 -12.041500 6.972900 0.000000 0.000000 -0.248100 0.000000 
0.357426 32.108200 4.650600 -12.148000 6.946800 0.000000 0.000000 -0.201200 0.000000 
0.361375 32.189300 4.654900 -12.254500 6.920700 0.000000 0.000000 -0.154300 0.000000 
0.365324 32.270400 4.659200 -12.361000 6.894600 0.000000 0.000000 -0.107400 0.000000 
0.369273 32.351500 4.663500 -12.467500 6.868500 0.000000 0.000000 -0.060500 0.000000 
0.373222 32.432600 4.667800 -12.574000 6.842400 0.000000 0.000000 -0.013600 0.000000 
0.377171 32.513700 4.672100 -12.680500 6.816300 0.000000 0.000000 0.033300 0.000000 
0.381120 32.594800 4.676400 -12.787000 6.790200 0.000000 0.000000 0.080200 0.000000 
0.385069 32.675900 4.680700 -12.893500 6.764100 0.000000 0.000000 0.127100 0.000000 
0.389018 32.757000 4.685000 -13.000000 6.738000 0.000000 0.000000 0.174000 0.000000 
0.396442 32.909450 4.693479 -13.200000 6.688947 0.000000 0.000000 0.258882 0.000000 
0.403866 33.061880 4.702729 -13.400000 6.639917 0.000000 0.000000 0.337440 0.000000 
0.411290 33.214293 4.712719 -13.600000 6.590910 0.000000 0.000000 0.410043 0.000000 
0.418713 33.366687 4.723418 -13.800000 6.541924 0.000000 0.000000 0.477060 0.000000 
0.426137 33.519065 4.734796 -14.000000 6.492957 0.000000 0.000000 0.538861 0.000000 
0.433561 33.671425 4.746821 -14.200000 6.444010 0.000000 0.000000 0.595815 0.000000 
0.440985 33.823769 4.759464 -14.400000 6.395079 0.000000 0.000000 0.648291 0.000000 
0.448409 33.976097 4.772693 -14.600000 6.346165 0.000000 0.000000 0.696659 0.000000 
0.455832 34.128410 4.786477 -14.800000 6.297265 0.000000 0.000000 0.741287 0.000000 
0.463256 34.280709 4.800787 -15.000000 6.248379 0.000000 0.000000 0.782545 0.000000 
0.470680 34.432993 4.815591 -15.200000 6.199506 0.000000 0.000000 0.820802 0.000000 
0.478104 34.585264 4.830858 -15.400000 6.150644 0.000000 0.000000 0.856427 0.000000 
0.485527 34.737521 4.846559 -15.600000 6.101791 0.000000 0.000000 0.889790 0.000000 
0.492951 34.889766 4.862661 -15.800000 6.052948 0.000000 0.000000 0.921260 0.000000 
0.500375 35.041999 4.879135 -16.000000 6.004112 0.000000 0.000000 0.951206 0.000000 
0.507799 35.194220 4.895950 -16.200000 5.955282 0.000000 0.000000 0.979997 0.000000 
0.515223 35.346430 4.913074 -16.400000 5.906457 0.000000 0.000000 1.008003 0.000000 
0.522646 35.498630 4.930478 -16.600000 5.857636 0.000000 0.000000 1.035592 0.000000 
0.530070 35.650820 4.948130 -16.800000 5.808817 0.000000 0.000000 1.063135 0.000000 
0.537494 35.803000 4.966000 -17.000000 5.760000 0.000000 0.000000 1.091000 0.000000 
0.544931 35.955451 4.984098 -17.200000 5.711093 0.000000 0.000000 1.119535 0.000000 
0.552369 36.107892 5.002396 -17.400000 5.662187 0.000000 0.000000 1.148683 0.000000 
0.559806 36.260322 5.020909 -17.600000 5.613281 0.000000 0.000000 1.178365 0.000000 
0.567244 36.412740 5.039648 -17.800000 5.564375 0.000000 0.000000 1.208501 0.000000 
0.574681 36.565145 5.058628 -18.000000 5.515470 0.000000 0.000000 1.239011 0.000000 
0.582119 36.717536 5.077861 -18.200000 5.466565 0.000000 0.000000 1.269814 0.000000 
0.589556 36.869912 5.097359 -18.400000 5.417660 0.000000 0.000000 1.300831 0.000000 
0.596993 37.022273 5.117137 -18.600000 5.368757 0.000000 0.000000 1.331980 0.000000 
0.604431 37.174617 5.137207 -18.800000 5.319854 0.000000 0.000000 1.363183 0.000000 
0.611868 37.326942 5.157583 -19.000000 5.270952 0.000000 0.000000 1.394358 0.000000 
0.619306 37.479249 5.178276 -19.200000 5.222051 0.000000 0.000000 1.425427 0.000000 
0.626743 37.631536 5.199302 -19.400000 5.173151 0.000000 0.000000 1.456308 0.000000 
0.634181 37.783803 5.220671 -19.600000 5.124252 0.000000 0.000000 1.486922 0.000000 
0.641618 37.936047 5.242398 -19.800000 5.075355 0.000000 0.000000 1.517188 0.000000 
0.649055 38.088269 5.264496 -20.000000 5.026459 0.000000 0.000000 1.547027 0.000000 
0.656493 38.240467 5.286977 -20.200000 4.977564 0.000000 0.000000 1.576357 0.000000 
0.663930 38.392640 5.309855 -20.400000 4.928670 0.000000 0.000000 1.605100 0.000000 
0.671368 38.544787 5.333143 -20.600000 4.879779 0.000000 0.000000 1.633175 0.000000 
0.678805 38.696907 5.356854 -20.800000 4.830888 0.000000 0.000000 1.660502 0.000000 
0.686243 38.849000 5.381000 -21.000000 4.782000 0.000000 0.000000 1.687000 0.000000 
0.693701 39.001498 5.405663 -21.200000 4.732974 0.000000 0.000000 1.712707 0.000000 
0.701160 39.153968 5.430769 -21.400000 4.683951 0.000000 0.000000 1.737690 0.000000 
0.708618 39.306409 5.456312 -21.600000 4.634931 0.000000 0.000000 1.762139 0.000000 
0.716077 39.458823 5.482284 -21.800000 4.585916 0.000000 0.000000 1.786243 0.000000 
0.723536 39.611209 5.508677 -22.000000 4.536906 0.000000 0.000000 1.810194 0.000000 
0.730994 39.763568 5.535484 -22.200000 4.487903 0.000000 0.000000 1.834180 0.000000 
0.738453 39.915901 5.562697 -22.400000 4.438906 0.000000 0.000000 1.858391 0.000000 
0.745912 40.068208 5.590309 -22.600000 4.389918 0.000000 0.000000 1.883017 0.000000 
0.753370 40.220489 5.618312 -22.800000 4.340938 0.000000 0.000000 1.908248 0.000000 
0.760829 40.372745 5.646698 -23.000000 4.291969 0.000000 0.000000 1.934274 0.000000 
0.768288 40.524976 5.675461 -23.200000 4.243009 0.000000 0.000000 1.961284 0.000000 
0.775746 40.677182 5.704592 -23.400000 4.194062 0.000000 0.000000 1.989469 0.000000 
0.783205 40.829365 5.734084 -23.600000 4.145126 0.000000 0.000000 2.019018 0.000000 
0.790664 40.981523 5.763929 -23.800000 4.096204 0.000000 0.000000 2.050120 0.000000 
0.798122 41.133659 5.794120 -24.000000 4.047296 0.000000 0.000000 2.082967 0.000000 
0.805581 41.285771 5.824650 -24.200000 3.998404 0.000000 0.000000 2.117747 0.000000 
0.813040 41.437861 5.855510 -24.400000 3.949527 0.000000 0.000000 2.154651 0.000000 
0.820498 41.589929 5.886694 -24.600000 3.900667 0.000000 0.000000 2.193868 0.000000 
0.827957 41.741975 5.918193 -24.800000 3.851824 0.000000 0.000000 2.235587 0.000000 
0.835416 41.894000 5.950000 -25.000000 3.803000 0.000000 0.000000 2.280000 0.000000 
0.843645 42.061707 5.985441 -25.220000 3.749154 0.000000 0.000000 2.332282 0.000000 
0.851874 42.229390 6.021229 -25.440000 3.695331 0.000000 0.000000 2.387897 0.000000 
0.860103 42.397050 6.057346 -25.660000 3.641528 0.000000 0.000000 2.446670 0.000000 
0.868332 42.564688 6.093775 -25.880000 3.587746 0.000000 0.000000 2.508426 0.000000 
0.876562 42.732306 6.130496 -26.100000 3.533983 0.000000 0.000000 2.572990 0.000000 
0.884791 42.899905 6.167491 -26.320000 3.480237 0.000000 0.000000 2.640185 0.000000 
0.893020 43.067486 6.204743 -26.540000 3.426509 0.000000 0.000000 2.709836 0.000000 
0.901249 43.235051 6.242233 -26.760000 3.372795 0.000000 0.000000 2.781768 0.000000 
0.909479 43.402600 6.279942 -26.980000 3.319096 0.000000 0.000000 2.855806 0.000000 
0.917708 43.570135 6.317852 -27.200000 3.265409 0.000000 0.000000 2.931774 0.000000 
0.925937 43.737658 6.355946 -27.420000 3.211735 0.000000 0.000000 3.009496 0.000000 
0.934166 43.905169 6.394204 -27.640000 3.158071 0.000000 0.000000 3.088797 0.000000 
0.942395 44.072670 6.432608 -27.860000 3.104416 0.000000 0.000000 3.169502 0.000000 
0.950625 44.240163 6.471140 -28.080000 3.050770 0.000000 0.000000 3.251435 0.000000 
0.958854 44.407647 6.509783 -28.300000 2.997131 0.000000 0.000000 3.334421 0.000000 
0.967083 44.575125 6.548516 -28.520000 2.943497 0.000000 0.000000 3.418284 0.000000 
0.975312 44.742598 6.587323 -28.740000 2.889869 0.000000 0.000000 3.502849 0.000000 
0.983542 44.910068 6.626185 -28.960000 2.836244 0.000000 0.000000 3.587940 0.000000 
0.991771 45.077534 6.665083 -29.180000 2.782621 0.000000 0.000000 3.673382 0.000000 
1.000000 45.245000 6.704000 -29.400000 2.729000 0.000000 0.000000 3.759000 0.000000 
