Variables= X  Y  Z 
 zone T="sec 0" i= 101 j= 52 
  11408.557000000   705.969000000   -1245.914000000
  11501.257340000   705.939240000   -1247.244770000
  11593.957680000   705.909480000   -1248.575540000
  11686.658020000   705.879720000   -1249.906310000
  11779.358360000   705.849960000   -1251.237080000
  11872.058700000   705.820200000   -1252.567850000
  11964.759040000   705.790440000   -1253.898620000
  12057.459380000   705.760680000   -1255.229390000
  12150.159720000   705.730920000   -1256.560160000
  12242.860060000   705.701160000   -1257.890930000
  12335.560400000   705.671400000   -1259.221700000
  12428.260740000   705.641640000   -1260.552470000
  12520.961080000   705.611880000   -1261.883240000
  12613.661420000   705.582120000   -1263.214010000
  12706.361760000   705.552360000   -1264.544780000
  12799.062100000   705.522600000   -1265.875550000
  12891.762440000   705.492840000   -1267.206320000
  12984.462780000   705.463080000   -1268.537090000
  13077.163120000   705.433320000   -1269.867860000
  13169.863460000   705.403560000   -1271.198630000
  13262.563800000   705.373800000   -1272.529400000
  13355.264140000   705.344040000   -1273.860170000
  13447.964480000   705.314280000   -1275.190940000
  13540.664820000   705.284520000   -1276.521710000
  13633.365160000   705.254760000   -1277.852480000
  13726.065500000   705.225000000   -1279.183250000
  13818.765840000   705.195240000   -1280.514020000
  13911.466180000   705.165480000   -1281.844790000
  14004.166520000   705.135720000   -1283.175560000
  14096.866860000   705.105960000   -1284.506330000
  14189.567200000   705.076200000   -1285.837100000
  14282.267540000   705.046440000   -1287.167870000
  14374.967880000   705.016680000   -1288.498640000
  14467.668220000   704.986920000   -1289.829410000
  14560.368560000   704.957160000   -1291.160180000
  14653.068900000   704.927400000   -1292.490950000
  14745.769240000   704.897640000   -1293.821720000
  14838.469580000   704.867880000   -1295.152490000
  14931.169920000   704.838120000   -1296.483260000
  15023.870260000   704.808360000   -1297.814030000
  15116.570600000   704.778600000   -1299.144800000
  15209.270940000   704.748840000   -1300.475570000
  15301.971280000   704.719080000   -1301.806340000
  15394.671620000   704.689320000   -1303.137110000
  15487.371960000   704.659560000   -1304.467880000
  15580.072300000   704.629800000   -1305.798650000
  15672.772640000   704.600040000   -1307.129420000
  15765.472980000   704.570280000   -1308.460190000
  15858.173320000   704.540520000   -1309.790960000
  15950.873660000   704.510760000   -1311.121730000
  16043.574000000   704.481000000   -1312.452500000
  16136.274340000   704.451240000   -1313.783270000
  16228.974680000   704.421480000   -1315.114040000
  16321.675020000   704.391720000   -1316.444810000
  16414.375360000   704.361960000   -1317.775580000
  16507.075700000   704.332200000   -1319.106350000
  16599.776040000   704.302440000   -1320.437120000
  16692.476380000   704.272680000   -1321.767890000
  16785.176720000   704.242920000   -1323.098660000
  16877.877060000   704.213160000   -1324.429430000
  16970.577400000   704.183400000   -1325.760200000
  17063.277740000   704.153640000   -1327.090970000
  17155.978080000   704.123880000   -1328.421740000
  17248.678420000   704.094120000   -1329.752510000
  17341.378760000   704.064360000   -1331.083280000
  17434.079100000   704.034600000   -1332.414050000
  17526.779440000   704.004840000   -1333.744820000
  17619.479780000   703.975080000   -1335.075590000
  17712.180120000   703.945320000   -1336.406360000
  17804.880460000   703.915560000   -1337.737130000
  17897.580800000   703.885800000   -1339.067900000
  17990.281140000   703.856040000   -1340.398670000
  18082.981480000   703.826280000   -1341.729440000
  18175.681820000   703.796520000   -1343.060210000
  18268.382160000   703.766760000   -1344.390980000
  18361.082500000   703.737000000   -1345.721750000
  18453.782840000   703.707240000   -1347.052520000
  18546.483180000   703.677480000   -1348.383290000
  18639.183520000   703.647720000   -1349.714060000
  18731.883860000   703.617960000   -1351.044830000
  18824.584200000   703.588200000   -1352.375600000
  18917.284540000   703.558440000   -1353.706370000
  19009.984880000   703.528680000   -1355.037140000
  19102.685220000   703.498920000   -1356.367910000
  19195.385560000   703.469160000   -1357.698680000
  19288.085900000   703.439400000   -1359.029450000
  19380.786240000   703.409640000   -1360.360220000
  19473.486580000   703.379880000   -1361.690990000
  19566.186920000   703.350120000   -1363.021760000
  19658.887260000   703.320360000   -1364.352530000
  19751.587600000   703.290600000   -1365.683300000
  19844.287940000   703.260840000   -1367.014070000
  19936.988280000   703.231080000   -1368.344840000
  20029.688620000   703.201320000   -1369.675610000
  20122.388960000   703.171560000   -1371.006380000
  20215.089300000   703.141800000   -1372.337150000
  20307.789640000   703.112040000   -1373.667920000
  20400.489980000   703.082280000   -1374.998690000
  20493.190320000   703.052520000   -1376.329460000
  20585.890660000   703.022760000   -1377.660230000
  20678.591000000   702.993000000   -1378.991000000
  11408.933091474   705.973494358   -1247.018034900
  11501.032530784   705.942987114   -1258.932991647
  11593.729904706   705.912479869   -1275.397361943
  11686.427278627   705.881972625   -1292.360422936
  11779.124652549   705.851465380   -1305.232161722
  11871.822026471   705.820958135   -1314.386526654
  11964.519400392   705.790450891   -1323.089103138
  12057.216774314   705.759943646   -1331.344520128
  12149.914148235   705.729436401   -1339.158035611
  12242.611522157   705.698929157   -1346.535513501
  12335.308896078   705.668421912   -1353.483400181
  12428.006270000   705.637914667   -1360.008700686
  12520.703643922   705.607407423   -1366.118954561
  12613.401017843   705.576900178   -1371.822211422
  12706.098391765   705.546392933   -1377.127006239
  12798.795765686   705.515885689   -1382.042334359
  12891.493139608   705.485378444   -1386.577626303
  12984.190513529   705.454871200   -1390.742722358
  13076.887887451   705.424363955   -1394.547846982
  13169.585261373   705.393856710   -1398.003583054
  13262.282635294   705.363349466   -1401.120845986
  13354.980009216   705.332842221   -1403.910857729
  13447.677383137   705.302334976   -1406.385120692
  13540.374757059   705.271827732   -1408.555391591
  13633.072130980   705.241320487   -1410.433655272
  13725.769504902   705.210813242   -1412.032098513
  13818.466878824   705.180305998   -1413.363083836
  13911.164252745   705.149798753   -1414.439123354
  14003.861626667   705.119291508   -1415.272852675
  14096.559000588   705.088784264   -1415.877004891
  14189.256374510   705.058277019   -1416.264384663
  14281.953748431   705.027769775   -1416.447842450
  14374.651122353   704.997262530   -1416.440248870
  14467.348496275   704.966755285   -1416.254469257
  14560.045870196   704.936248041   -1415.973301131
  14652.743244118   704.905740796   -1415.671472775
  14745.440618039   704.875233551   -1415.349728533
  14838.137991961   704.844726307   -1415.008815204
  14930.835365882   704.814219062   -1414.649481764
  15023.532739804   704.783711817   -1414.272479077
  15116.230113725   704.753204573   -1413.878559614
  15208.927487647   704.722697328   -1413.468477172
  15301.624861569   704.692190083   -1413.042986587
  15394.322235490   704.661682839   -1412.602843458
  15487.019609412   704.631175594   -1412.148803862
  15579.716983333   704.600668350   -1411.681624074
  15672.414357255   704.570161105   -1411.202060289
  15765.111731176   704.539653860   -1410.710868345
  15857.809105098   704.509146616   -1410.208803440
  15950.506479020   704.478639371   -1409.696619863
  16043.203852941   704.448132126   -1409.175070713
  16135.901226863   704.417624882   -1408.644907631
  16228.598600784   704.387117637   -1408.106880520
  16321.295974706   704.356610392   -1407.561737285
  16413.993348627   704.326103148   -1407.010223554
  16506.690722549   704.295595903   -1406.453082416
  16599.388096471   704.265088658   -1405.891054155
  16692.085470392   704.234581414   -1405.324875986
  16784.782844314   704.204074169   -1404.755281791
  16877.480218235   704.173566925   -1404.183001865
  16970.177592157   704.143059680   -1403.608762652
  17062.874966078   704.112552435   -1403.033286495
  17155.572340000   704.082045191   -1402.457291380
  17248.269713922   704.051537946   -1401.881490687
  17340.967087843   704.021030701   -1401.306592941
  17433.664461765   703.990523457   -1400.733301569
  17526.361835686   703.960016212   -1400.162314652
  17619.059209608   703.929508967   -1399.594324691
  17711.756583529   703.899001723   -1399.026064584
  17804.453957451   703.868494478   -1398.445527949
  17897.151331373   703.837987233   -1397.844527909
  17989.848705294   703.807479989   -1397.217663560
  18082.546079216   703.776972744   -1396.561309898
  18175.243453137   703.746465500   -1395.873225752
  18267.940827059   703.715958255   -1395.152339779
  18360.638200980   703.685451010   -1394.398614608
  18453.335574902   703.654943766   -1393.612952182
  18546.032948824   703.624436521   -1392.797123371
  18638.730322745   703.593929276   -1391.953712956
  18731.427696667   703.563422032   -1391.086074876
  18824.125070588   703.532914787   -1390.198294588
  18916.822444510   703.502407542   -1389.295156497
  19009.519818431   703.471900298   -1388.382115074
  19102.217192353   703.441393053   -1387.465268693
  19194.914566275   703.410885808   -1386.551335482
  19287.611940196   703.380378564   -1385.647630697
  19380.309314118   703.349871319   -1384.762045198
  19473.006688039   703.319364075   -1383.903024762
  19565.704061961   703.288856830   -1383.079549989
  19658.401435882   703.258349585   -1382.301116622
  19751.098809804   703.227842341   -1381.577716138
  19843.796183725   703.197335096   -1380.919816502
  19936.493557647   703.166827851   -1380.338342985
  20029.190931569   703.136320607   -1379.844658976
  20121.888305490   703.105813362   -1379.450546723
  20214.585679412   703.075306117   -1379.168187957
  20307.283053333   703.044798873   -1379.010144367
  20399.980427255   703.014291628   -1378.989337875
  20492.677801176   702.983784383   -1379.119030703
  20585.375175098   702.953277139   -1379.412805198
  20677.867515545   702.922769894   -1379.884543413
  11408.845172157   705.940953647   -1248.132624413
  11500.807721569   705.909953795   -1262.380044411
  11593.502129412   705.878953942   -1281.944119651
  11686.196537255   705.847954089   -1302.069912054
  11778.890945098   705.816954236   -1317.369732633
  11871.585352941   705.785954383   -1328.283247904
  11964.279760784   705.754954530   -1338.644419440
  12056.974168627   705.723954678   -1348.459175375
  12149.668576471   705.692954825   -1357.734182669
  12242.362984314   705.661954972   -1366.476819941
  12335.057392157   705.630955119   -1374.695149876
  12427.751800000   705.599955266   -1382.397891221
  12520.446207843   705.568955413   -1389.594390401
  12613.140615686   705.537955561   -1396.294592783
  12705.835023529   705.506955708   -1402.509013614
  12798.529431373   705.475955855   -1408.248708669
  12891.223839216   705.444956002   -1413.525244623
  12983.918247059   705.413956149   -1418.350669184
  13076.612654902   705.382956297   -1422.737481019
  13169.307062745   705.351956444   -1426.698599490
  13262.001470588   705.320956591   -1430.247334240
  13354.695878431   705.289956738   -1433.397354646
  13447.390286275   705.258956885   -1436.162659180
  13540.084694118   705.227957032   -1438.557544693
  13632.779101961   705.196957180   -1440.596575665
  13725.473509804   705.165957327   -1442.294553430
  13818.167917647   705.134957474   -1443.666485429
  13910.862325490   705.103957621   -1444.727554492
  14003.556733333   705.072957768   -1445.493088205
  14096.251141176   705.041957915   -1445.978528363
  14188.945549020   705.010958063   -1446.199400558
  14281.639956863   704.979958210   -1446.171283916
  14374.334364706   704.948958357   -1445.909781021
  14467.028772549   704.917958504   -1445.430488041
  14559.723180392   704.886958651   -1444.835106028
  14652.417588235   704.855958798   -1444.215535796
  14745.111996078   704.824958946   -1443.572652883
  14837.806403922   704.793959093   -1442.907335673
  14930.500811765   704.762959240   -1442.220465070
  15023.195219608   704.731959387   -1441.512924156
  15115.889627451   704.700959534   -1440.785597863
  15208.584035294   704.669959681   -1440.039372637
  15301.278443137   704.638959829   -1439.275136109
  15393.972850980   704.607959976   -1438.493776759
  15486.667258824   704.576960123   -1437.696183592
  15579.361666667   704.545960270   -1436.883245800
  15672.056074510   704.514960417   -1436.055852439
  15764.750482353   704.483960564   -1435.214892100
  15857.444890196   704.452960712   -1434.361252582
  15950.139298039   704.421960859   -1433.495820568
  16042.833705882   704.390961006   -1432.619481300
  16135.528113725   704.359961153   -1431.733118259
  16228.222521569   704.328961300   -1430.837612843
  16320.916929412   704.297961447   -1429.933844051
  16413.611337255   704.266961595   -1429.022688163
  16506.305745098   704.235961742   -1428.105018430
  16599.000152941   704.204961889   -1427.181704756
  16691.694560784   704.173962036   -1426.253613395
  16784.388968627   704.142962183   -1425.321606638
  16877.083376471   704.111962330   -1424.386542508
  16969.777784314   704.080962478   -1423.449274461
  17062.472192157   704.049962625   -1422.510651081
  17155.166600000   704.018962772   -1421.571515787
  17247.861007843   703.987962919   -1420.632706534
  17340.555415686   703.956963066   -1419.695055527
  17433.249823529   703.925963213   -1418.759388928
  17525.944231373   703.894963361   -1417.826526569
  17618.638639216   703.863963508   -1416.897281678
  17711.333047059   703.832963655   -1415.967437135
  17804.027454902   703.801963802   -1415.021611332
  17896.721862745   703.770963949   -1414.049157435
  17989.416270588   703.739964096   -1413.042874279
  18082.110678431   703.708964244   -1411.997735242
  18174.805086275   703.677964391   -1410.910396589
  18267.499494118   703.646964538   -1409.778929817
  18360.193901961   703.615964685   -1408.602652116
  18452.888309804   703.584964832   -1407.382008521
  18545.582717647   703.553964979   -1406.118484460
  18638.277125490   703.522965127   -1404.814537552
  18730.971533333   703.491965274   -1403.473542259
  18823.665941176   703.460965421   -1402.099743438
  18916.360349020   703.429965568   -1400.698216258
  19009.054756863   703.398965715   -1399.274830734
  19101.749164706   703.367965862   -1397.836219686
  19194.443572549   703.336966010   -1396.389749246
  19287.137980392   703.305966157   -1394.943491270
  19379.832388235   703.274966304   -1393.506197179
  19472.526796078   703.243966451   -1392.087272856
  19565.221203922   703.212966598   -1390.696754319
  19657.915611765   703.181966746   -1389.345283941
  19750.610019608   703.150966893   -1388.044087037
  19843.304427451   703.119967040   -1386.804948684
  19935.998835294   703.088967187   -1385.640190653
  20028.693243137   703.057967334   -1384.562648361
  20121.387650980   703.026967481   -1383.585647774
  20214.082058824   702.995967629   -1382.722982184
  20306.776466667   702.964967776   -1381.988888831
  20399.470874510   702.933967923   -1381.398025312
  20492.165282353   702.902968070   -1380.965445754
  20584.859690196   702.871968217   -1380.706576717
  20676.787527154   702.840968364   -1380.637192815
  11408.737267523   705.872666605   -1249.242631295
  11500.582912353   705.841563013   -1265.054038172
  11593.274354118   705.810459422   -1286.598740424
  11685.965795882   705.779355830   -1308.728007772
  11778.657237647   705.748252239   -1325.608122895
  11871.348679412   705.717148647   -1337.715814742
  11964.040121176   705.686045055   -1349.203307619
  12056.731562941   705.654941464   -1360.077517118
  12149.423004706   705.623837872   -1370.346159155
  12242.114446471   705.592734281   -1380.017720525
  12334.805888235   705.561630689   -1389.101428982
  12427.497330000   705.530527098   -1397.607222888
  12520.188771765   705.499423506   -1405.545720445
  12612.880213529   705.468319914   -1412.928188548
  12705.571655294   705.437216323   -1419.766511289
  12798.263097059   705.406112731   -1426.073158143
  12890.954538824   705.375009140   -1431.861151862
  12983.645980588   705.343905548   -1437.144036107
  13076.337422353   705.312801957   -1441.935842862
  13169.028864118   705.281698365   -1446.251059639
  13261.720305882   705.250594774   -1450.104596526
  13354.411747647   705.219491182   -1453.511753088
  13447.103189412   705.188387590   -1456.488185178
  13539.794631176   705.157283999   -1459.049871655
  13632.486072941   705.126180407   -1461.213081078
  13725.177514706   705.095076816   -1462.994338370
  13817.868956471   705.063973224   -1464.410391508
  13910.560398235   705.032869633   -1465.478178265
  14003.251840000   705.001766041   -1466.214793019
  14095.943281765   704.970662449   -1466.637453683
  14188.634723529   704.939558858   -1466.763468764
  14281.326165294   704.908455266   -1466.610204603
  14374.017607059   704.877351675   -1466.195052799
  14466.709048824   704.846248083   -1465.535397876
  14559.400490588   704.815144492   -1464.745886913
  14652.091932353   704.784040900   -1463.930224846
  14744.783374118   704.752937309   -1463.089360912
  14837.474815882   704.721833717   -1462.224247409
  14930.166257647   704.690730125   -1461.335839337
  15022.857699412   704.659626534   -1460.425094032
  15115.549141176   704.628522942   -1459.492970810
  15208.240582941   704.597419351   -1458.540430600
  15300.932024706   704.566315759   -1457.568435589
  15393.623466471   704.535212168   -1456.577948856
  15486.314908235   704.504108576   -1455.569934021
  15579.006350000   704.473004984   -1454.545354882
  15671.697791765   704.441901393   -1453.505175060
  15764.389233529   704.410797801   -1452.450357644
  15857.080675294   704.379694210   -1451.381864837
  15949.772117059   704.348590618   -1450.300657604
  16042.463558824   704.317487027   -1449.207695320
  16135.155000588   704.286383435   -1448.103935422
  16227.846442353   704.255279843   -1446.990333062
  16320.537884118   704.224176252   -1445.867840760
  16413.229325882   704.193072660   -1444.737408064
  16505.920767647   704.161969069   -1443.599981207
  16598.612209412   704.130865477   -1442.456502769
  16691.303651176   704.099761886   -1441.307911338
  16783.995092941   704.068658294   -1440.155141184
  16876.686534706   704.037554703   -1438.999121918
  16969.377976471   704.006451111   -1437.840778172
  17062.069418235   703.975347519   -1436.681029270
  17154.760860000   703.944243928   -1435.520788904
  17247.452301765   703.913140336   -1434.360964821
  17340.143743529   703.882036745   -1433.202458499
  17432.835185294   703.850933153   -1432.046164840
  17525.526627059   703.819829562   -1430.892971857
  17618.218068824   703.788725970   -1429.743760370
  17710.909510588   703.757622378   -1428.593583042
  17803.600952353   703.726518787   -1427.424500953
  17896.292394118   703.695415195   -1426.223954074
  17988.983835882   703.664311604   -1424.983289498
  18081.675277647   703.633208012   -1423.696299781
  18174.366719412   703.602104421   -1422.358659204
  18267.058161176   703.571000829   -1420.967617555
  18359.749602941   703.539897238   -1419.521806553
  18452.441044706   703.508793646   -1418.021105544
  18545.132486471   703.477690054   -1416.466542030
  18637.823928235   703.446586463   -1414.860214251
  18730.515370000   703.415482871   -1413.205228487
  18823.206811765   703.384379280   -1411.505646559
  18915.898253529   703.353275688   -1409.766440618
  19008.589695294   703.322172097   -1407.993453252
  19101.281137059   703.291068505   -1406.193361509
  19193.972578824   703.259964913   -1404.373643870
  19286.664020588   703.228861322   -1402.542549419
  19379.355462353   703.197757730   -1400.709068681
  19472.046904118   703.166654139   -1398.882905682
  19564.738345882   703.135550547   -1397.074450936
  19657.429787647   703.104446956   -1395.294755078
  19750.121229412   703.073343364   -1393.555502949
  19842.812671176   703.042239773   -1391.868987983
  19935.504112941   703.011136181   -1390.248086739
  20028.195554706   702.980032589   -1388.706233501
  20120.886996471   702.948928998   -1387.257394837
  20213.578438235   702.917825406   -1385.916044060
  20306.269880000   702.886721815   -1384.697135528
  20398.961321765   702.855618223   -1383.616078736
  20491.652763529   702.824514632   -1382.688712170
  20584.344205294   702.793411040   -1381.931276876
  20675.756577160   702.762307448   -1381.360389734
  11408.610393115   705.768938838   -1250.346942168
  11500.358103137   705.738095336   -1267.220658648
  11593.046578824   705.707251834   -1290.016221913
  11685.735054510   705.676408332   -1313.393160273
  11778.423530196   705.645564830   -1331.300548232
  11871.112005882   705.614721328   -1344.233494338
  11963.800481569   705.583877826   -1356.499728687
  12056.488957255   705.553034324   -1368.106950044
  12149.177432941   705.522190822   -1379.063687499
  12241.865908627   705.491347320   -1389.379269906
  12334.554384314   705.460503818   -1399.063794830
  12427.242860000   705.429660316   -1408.128097048
  12519.931335686   705.398816814   -1416.583716620
  12612.619811373   705.367973312   -1424.442866564
  12705.308287059   705.337129811   -1431.718400172
  12797.996762745   705.306286309   -1438.423777994
  12890.685238431   705.275442807   -1444.573034525
  12983.373714118   705.244599305   -1450.180744617
  13076.062189804   705.213755803   -1455.261989661
  13168.750665490   705.182912301   -1459.832323565
  13261.439141176   705.152068799   -1463.907738557
  13354.127616863   705.121225297   -1467.504630850
  13446.816092549   705.090381795   -1470.639766195
  13539.504568235   705.059538293   -1473.330245364
  13632.193043922   705.028694791   -1475.593469583
  13724.881519608   704.997851289   -1477.447105952
  13817.569995294   704.967007787   -1478.909052890
  13910.258470980   704.936164285   -1479.997405626
  14002.946946667   704.905320783   -1480.730421776
  14095.635422353   704.874477281   -1481.126487027
  14188.323898039   704.843633779   -1481.204080976
  14281.012373725   704.812790277   -1480.981743139
  14373.700849412   704.781946775   -1480.478039172
  14466.389325098   704.751103273   -1479.711527322
  14559.077800784   704.720259771   -1478.805908077
  14651.766276471   704.689416269   -1477.873181865
  14744.454752157   704.658572767   -1476.914333900
  14837.143227843   704.627729265   -1475.930352562
  14929.831703529   704.596885763   -1474.922229019
  15022.520179216   704.566042261   -1473.890956854
  15115.208654902   704.535198759   -1472.837531688
  15207.897130588   704.504355257   -1471.762950807
  15300.585606275   704.473511755   -1470.668212786
  15393.274081961   704.442668253   -1469.554317117
  15485.962557647   704.411824751   -1468.422263837
  15578.651033333   704.380981249   -1467.273053153
  15671.339509020   704.350137747   -1466.107685080
  15764.027984706   704.319294245   -1464.927159062
  15856.716460392   704.288450743   -1463.732473615
  15949.404936078   704.257607241   -1462.524625951
  16042.093411765   704.226763739   -1461.304611623
  16134.781887451   704.195920237   -1460.073424158
  16227.470363137   704.165076735   -1458.832054695
  16320.158838824   704.134233233   -1457.581491633
  16412.847314510   704.103389731   -1456.322720267
  16505.535790196   704.072546229   -1455.056722443
  16598.224265882   704.041702727   -1453.784476197
  16690.912741569   704.010859225   -1452.506955414
  16783.601217255   703.980015723   -1451.225129477
  16876.289692941   703.949172221   -1449.939962926
  16968.978168627   703.918328719   -1448.652415117
  17061.666644314   703.887485217   -1447.363439882
  17154.355120000   703.856641715   -1446.073985199
  17247.043595686   703.825798213   -1444.784992855
  17339.732071373   703.794954711   -1443.497398122
  17432.420547059   703.764111209   -1442.212129433
  17525.109022745   703.733267707   -1440.930108057
  17617.797498431   703.702424205   -1439.652247784
  17710.485974118   703.671580703   -1438.373016478
  17803.174449804   703.640737201   -1437.072458697
  17895.862925490   703.609893699   -1435.736464640
  17988.551401176   703.579050197   -1434.355163573
  18081.239876863   703.548206695   -1432.921318010
  18173.928352549   703.517363193   -1431.429706001
  18266.616828235   703.486519691   -1429.876786275
  18359.305303922   703.455676189   -1428.260486974
  18451.993779608   703.424832687   -1426.580059335
  18544.682255294   703.393989185   -1424.835969533
  18637.370730980   703.363145683   -1423.029814677
  18730.059206667   703.332302181   -1421.164254905
  18822.747682353   703.301458679   -1419.242956666
  18915.436158039   703.270615177   -1417.270543986
  19008.124633725   703.239771675   -1415.252555558
  19100.813109412   703.208928173   -1413.195406148
  19193.501585098   703.178084671   -1411.106351242
  19286.190060784   703.147241169   -1408.993454130
  19378.878536471   703.116397667   -1406.865554826
  19471.567012157   703.085554165   -1404.732240368
  19564.255487843   703.054710663   -1402.603816147
  19656.943963529   703.023867161   -1400.491277984
  19749.632439216   702.993023659   -1398.406284726
  19842.320914902   702.962180157   -1396.361131199
  19935.009390588   702.931336655   -1394.368721362
  20027.697866275   702.900493154   -1392.442541559
  20120.386341961   702.869649652   -1390.596633755
  20213.074817647   702.838806150   -1388.845568710
  20305.763293333   702.807962648   -1387.204418988
  20398.451769020   702.777119146   -1385.688731794
  20491.140244706   702.746275644   -1384.314501555
  20583.828720392   702.715432142   -1383.098142248
  20674.771354001   702.684588640   -1382.056459410
  11408.465554546   705.630092826   -1251.444467514
  11500.133293922   705.599848927   -1269.042565117
  11592.818803529   705.569605027   -1292.598264289
  11685.504313137   705.539361128   -1316.714803562
  11778.189822745   705.509117228   -1335.277397238
  11870.875332353   705.478873329   -1348.786983953
  11963.560841961   705.448629430   -1361.597719602
  12056.246351569   705.418385530   -1373.717947637
  12148.931861176   705.388141631   -1385.156850667
  12241.617370784   705.357897731   -1395.924419567
  12334.302880392   705.327653832   -1406.031422108
  12426.988390000   705.297409933   -1415.489371112
  12519.673899608   705.267166033   -1424.310492189
  12612.359409216   705.236922134   -1432.507691071
  12705.044918824   705.206678234   -1440.094520577
  12797.730428431   705.176434335   -1447.085147246
  12890.415938039   705.146190436   -1453.494317674
  12983.101447647   705.115946536   -1459.337324563
  13075.786957255   705.085702637   -1464.629972553
  13168.472466863   705.055458738   -1469.388543828
  13261.157976471   705.025214838   -1473.629763563
  13353.843486078   704.994970939   -1477.370765220
  13446.528995686   704.964727039   -1480.629055737
  13539.214505294   704.934483140   -1483.422480642
  13631.900014902   704.904239241   -1485.769189118
  13724.585524510   704.873995341   -1487.687599061
  13817.271034118   704.843751442   -1489.196362149
  13909.956543725   704.813507542   -1490.314328971
  14002.642053333   704.783263643   -1491.060514233
  14095.327562941   704.753019744   -1491.454062087
  14188.013072549   704.722775844   -1491.514211593
  14280.698582157   704.692531945   -1491.260262375
  14373.384091765   704.662288045   -1490.711540479
  14466.069601373   704.632044146   -1489.887364469
  14558.755110980   704.601800247   -1488.917862871
  14651.440620588   704.571556347   -1487.920964408
  14744.126130196   704.541312448   -1486.897664747
  14836.811639804   704.511068548   -1485.848962757
  14929.497149412   704.480824649   -1484.775860125
  15022.182659020   704.450580750   -1483.679360980
  15114.868168627   704.420336850   -1482.560471510
  15207.553678235   704.390092951   -1481.420199588
  15300.239187843   704.359849051   -1480.259554390
  15392.924697451   704.329605152   -1479.079546019
  15485.610207059   704.299361253   -1477.881185129
  15578.295716667   704.269117353   -1476.665482551
  15670.981226275   704.238873454   -1475.433448916
  15763.666735882   704.208629554   -1474.186094285
  15856.352245490   704.178385655   -1472.924427778
  15949.037755098   704.148141756   -1471.649457200
  16041.723264706   704.117897856   -1470.362188680
  16134.408774314   704.087653957   -1469.063626299
  16227.094283922   704.057410057   -1467.754771729
  16319.779793529   704.027166158   -1466.436623868
  16412.465303137   703.996922259   -1465.110178485
  16505.150812745   703.966678359   -1463.776427857
  16597.836322353   703.936434460   -1462.436360418
  16690.521831961   703.906190561   -1461.090960402
  16783.207341569   703.875946661   -1459.741207500
  16875.892851176   703.845702762   -1458.388076505
  16968.578360784   703.815458862   -1457.032536973
  17061.263870392   703.785214963   -1455.675552880
  17153.949380000   703.754971064   -1454.318082283
  17246.634889608   703.724727164   -1452.961076987
  17339.320399216   703.694483265   -1451.605482213
  17432.005908824   703.664239365   -1450.252236268
  17524.691418431   703.633995466   -1448.902270224
  17617.376928039   703.603751567   -1447.556507595
  17710.062437647   703.573507667   -1446.208931127
  17802.747947255   703.543263768   -1444.837939116