Variables= X  Y  Z 
 zone T="sec 0" i= 201 j= 52 
  6400.000000000   705.937000000   0.000000000
  6480.011520635   705.922280000   2.194286525
  6560.023041270   705.907560000   4.032034540
  6640.034561905   705.892840000   5.519636193
  6720.046082540   705.878120000   6.663483628
  6800.057603175   705.863400000   7.469968993
  6880.069123810   705.848680000   7.945484434
  6960.080644445   705.833960000   8.096422096
  7040.092165080   705.819240000   7.929174127
  7120.103685715   705.804520000   7.450132672
  7200.115206350   705.789800000   6.665689878
  7280.126726985   705.775080000   5.582237890
  7360.138247620   705.760360000   4.206168856
  7440.149768255   705.745640000   2.543874921
  7520.161288890   705.730920000   0.601748232
  7600.172809525   705.716200000   -1.613819065
  7680.184330160   705.701480000   -4.096434824
  7760.195850795   705.686760000   -6.839706898
  7840.207371430   705.672040000   -9.837243142
  7920.218892065   705.657320000   -13.082651409
  8000.230412700   705.642600000   -16.569539553
  8080.241933335   705.627880000   -20.291515427
  8160.253453970   705.613160000   -24.242186885
  8240.264974605   705.598440000   -28.415161782
  8320.276495240   705.583720000   -32.804047970
  8400.288015875   705.569000000   -37.402453304
  8480.299536510   705.554280000   -42.203985637
  8560.311057145   705.539560000   -47.202252823
  8640.322577780   705.524840000   -52.390862715
  8720.334098415   705.510120000   -57.763423169
  8800.345619050   705.495400000   -63.313542036
  8880.357139685   705.480680000   -69.034827172
  8960.368660320   705.465960000   -74.920886429
  9040.380180955   705.451240000   -80.965327661
  9120.391701590   705.436520000   -87.161758723
  9200.403222225   705.421800000   -93.503787468
  9280.414742860   705.407080000   -99.985021750
  9360.426263495   705.392360000   -106.599069422
  9440.437784130   705.377640000   -113.339538338
  9520.449304765   705.362920000   -120.200036352
  9600.460825400   705.348200000   -127.174171318
  9680.472346035   705.333480000   -134.255551089
  9760.483866670   705.318760000   -141.437783519
  9840.495387305   705.304040000   -148.714476463
  9920.506907940   705.289320000   -156.079237773
  10000.518428575   705.274600000   -163.525675303
  10080.529949210   705.259880000   -171.047396908
  10160.541469845   705.245160000   -178.638010440
  10240.552990480   705.230440000   -186.291123754
  10320.564511115   705.215720000   -194.000344704
  10400.576031750   705.201000000   -201.759281143
  10480.587552385   705.186280000   -209.561540924
  10560.599073020   705.171560000   -217.400731902
  10640.610593655   705.156840000   -225.270461931
  10720.622114290   705.142120000   -233.164338864
  10800.633634925   705.127400000   -241.075970554
  10880.645155560   705.112680000   -248.998964856
  10960.656676195   705.097960000   -256.927407117
  11040.668196830   705.083240000   -264.857733562
  11120.679717465   705.068520000   -272.787102685
  11200.691238100   705.053800000   -280.712673174
  11280.702758735   705.039080000   -288.631603716
  11360.714279370   705.024360000   -296.541052998
  11440.725800005   705.009640000   -304.438179710
  11520.737320640   704.994920000   -312.320142537
  11600.748841275   704.980200000   -320.184100169
  11680.760361910   704.965480000   -328.027211292
  11760.771882545   704.950760000   -335.846634595
  11840.783403180   704.936040000   -343.639528765
  11920.794923815   704.921320000   -351.403052490
  12000.806444450   704.906600000   -359.134364457
  12080.817965085   704.891880000   -366.830623354
  12160.829485720   704.877160000   -374.488987869
  12240.841006355   704.862440000   -382.106616690
  12320.852526990   704.847720000   -389.680668504
  12400.864047625   704.833000000   -397.208301999
  12480.875568260   704.818280000   -404.686675863
  12560.887088895   704.803560000   -412.112948783
  12640.898609530   704.788840000   -419.484279447
  12720.910130165   704.774120000   -426.797826543
  12800.921650800   704.759400000   -434.050748759
  12880.933171435   704.744680000   -441.240204781
  12960.944692070   704.729960000   -448.363353299
  13040.956212705   704.715240000   -455.417352999
  13120.967733340   704.700520000   -462.399362570
  13200.979253975   704.685800000   -469.306540698
  13280.990774610   704.671080000   -476.136046072
  13361.002295245   704.656360000   -482.885037379
  13441.013815880   704.641640000   -489.550673308
  13521.025336515   704.626920000   -496.130112545
  13601.036857150   704.612200000   -502.620513779
  13681.048377785   704.597480000   -509.019035697
  13761.059898420   704.582760000   -515.322836986
  13841.071419055   704.568040000   -521.529076336
  13921.082939690   704.553320000   -527.634912432
  14001.094460325   704.538600000   -533.637503964
  14081.105980960   704.523880000   -539.534009618
  14161.117501595   704.509160000   -545.321588082
  14241.129022230   704.494440000   -550.997398045
  14321.140542865   704.479720000   -556.558598193
  14401.152063500   704.465000000   -562.002347215
  14481.163584135   704.450280000   -567.325803798
  14561.175104770   704.435560000   -572.526126630
  14641.186625405   704.420840000   -577.600474398
  14721.198146040   704.406120000   -582.546005790
  14801.209666675   704.391400000   -587.359879495
  14881.221187310   704.376680000   -592.039254199
  14961.232707945   704.361960000   -596.581288591
  15041.244228580   704.347240000   -600.983141357
  15121.255749215   704.332520000   -605.241971186
  15201.267269850   704.317800000   -609.354936766
  15281.278790485   704.303080000   -613.319196784
  15361.290311120   704.288360000   -617.131909927
  15441.301831755   704.273640000   -620.790234885
  15521.313352390   704.258920000   -624.291330343
  15601.324873025   704.244200000   -627.632354990
  15681.336393660   704.229480000   -630.810467514
  15761.347914295   704.214760000   -633.822826603
  15841.359434930   704.200040000   -636.666590943
  15921.370955565   704.185320000   -639.338919223
  16001.382476200   704.170600000   -641.836970130
  16081.393996835   704.155880000   -644.157902353
  16161.405517470   704.141160000   -646.298874578
  16241.417038105   704.126440000   -648.257045494
  16321.428558740   704.111720000   -650.029573788
  16401.440079375   704.097000000   -651.613618148
  16481.451600010   704.082280000   -653.006337262
  16561.463120645   704.067560000   -654.204889817
  16641.474641280   704.052840000   -655.206434501
  16721.486161915   704.038120000   -656.008130002
  16801.497682550   704.023400000   -656.607135007
  16881.509203185   704.008680000   -657.000608204
  16961.520723820   703.993960000   -657.185708281
  17041.532244455   703.979240000   -657.160002326
  17121.543765090   703.964520000   -656.923304228
  17201.555285725   703.949800000   -656.476196421
  17281.566806360   703.935080000   -655.819262008
  17361.578326995   703.920360000   -654.953084095
  17441.589847630   703.905640000   -653.878245787
  17521.601368265   703.890920000   -652.595330189
  17601.612888900   703.876200000   -651.104920405
  17681.624409535   703.861480000   -649.407599541
  17761.635930170   703.846760000   -647.503950700
  17841.647450805   703.832040000   -645.394556989
  17921.658971440   703.817320000   -643.080001512
  18001.670492075   703.802600000   -640.560867374
  18081.682012710   703.787880000   -637.837737680
  18161.693533345   703.773160000   -634.911195534
  18241.705053980   703.758440000   -631.781824041
  18321.716574615   703.743720000   -628.450206307
  18401.728095250   703.729000000   -624.916925436
  18481.739615885   703.714280000   -621.182564533
  18561.751136520   703.699560000   -617.247706703
  18641.762657155   703.684840000   -613.112935051
  18721.774177790   703.670120000   -608.778832682
  18801.785698425   703.655400000   -604.245982700
  18881.797219060   703.640680000   -599.514968210
  18961.808739695   703.625960000   -594.586372318
  19041.820260330   703.611240000   -589.460778128
  19121.831780965   703.596520000   -584.138768744
  19201.843301600   703.581800000   -578.620927273
  19281.854822235   703.567080000   -572.907836818
  19361.866342870   703.552360000   -567.000080485
  19441.877863505   703.537640000   -560.898241379
  19521.889384140   703.522920000   -554.602902603
  19601.900904775   703.508200000   -548.114647264
  19681.912425410   703.493480000   -541.434058466
  19761.923946045   703.478760000   -534.561719314
  19841.935466680   703.464040000   -527.498212912
  19921.946987315   703.449320000   -520.244122367
  20001.958507950   703.434600000   -512.800030781
  20081.970028585   703.419880000   -505.166521261
  20161.981549220   703.405160000   -497.344176912
  20241.993069855   703.390440000   -489.333580837
  20322.004590490   703.375720000   -481.135316143
  20402.016111125   703.361000000   -472.749965933
  20482.027631760   703.346280000   -464.178113313
  20562.039152395   703.331560000   -455.420341388
  20642.050673030   703.316840000   -446.477233262
  20722.062193665   703.302120000   -437.349372040
  20802.073714300   703.287400000   -428.037340828
  20882.085234935   703.272680000   -418.541722729
  20962.096755570   703.257960000   -408.863100850
  21042.108276205   703.243240000   -399.002058294
  21122.119796840   703.228520000   -388.959178167
  21202.131317475   703.213800000   -378.735043573
  21282.142838110   703.199080000   -368.330237618
  21362.154358745   703.184360000   -357.745343406
  21442.165879380   703.169640000   -346.980944042
  21522.177400015   703.154920000   -336.037622631
  21602.188920650   703.140200000   -324.915962278
  21682.200441285   703.125480000   -313.616546088
  21762.211961920   703.110760000   -302.139957165
  21842.223482555   703.096040000   -290.486778615
  21922.235003190   703.081320000   -278.657593542
  22002.246523825   703.066600000   -266.652985051
  22082.258044460   703.051880000   -254.473536247
  22162.269565095   703.037160000   -242.119830236
  22242.281085730   703.022440000   -229.592450120
  22322.292606365   703.007720000   -216.891979007
  22402.304127000   702.993000000   -204.019000000
  6508.450847826   705.937695652   -26.543673913
  6587.751122739   705.922972174   -24.400317674
  6667.051397652   705.908248696   -22.605858272
  6746.351672565   705.893525217   -21.154048115
  6825.651947477   705.878801739   -20.038639415
  6904.952222390   705.864078261   -19.253384189
  6984.252497303   705.849354783   -18.792034259
  7063.552772216   705.834631304   -18.648341250
  7142.853047129   705.819907826   -18.816056591
  7222.153322042   705.805184348   -19.288931514
  7301.453596954   705.790460870   -20.060717055
  7380.753871867   705.775737391   -21.125164051
  7460.054146780   705.761013913   -22.476023144
  7539.354421693   705.746290435   -24.107044776
  7618.654696606   705.731566957   -26.011979192
  7697.954971519   705.716843478   -28.184576438
  7777.255246431   705.702120000   -30.618586363
  7856.555521344   705.687396522   -33.307758614
  7935.855796257   705.672673043   -36.245842643
  8015.156071170   705.657949565   -39.426587699
  8094.456346083   705.643226087   -42.843742832
  8173.756620996   705.628502609   -46.491056893
  8253.056895908   705.613779130   -50.362278533
  8332.357170821   705.599055652   -54.451156200
  8411.657445734   705.584332174   -58.751438143
  8490.957720647   705.569608696   -63.256872410
  8570.257995560   705.554885217   -67.961206846
  8649.558270473   705.540161739   -72.858189096
  8728.858545385   705.525438261   -77.941566601
  8808.158820298   705.510714783   -83.205086601
  8887.459095211   705.495991304   -88.642496134
  8966.759370124   705.481267826   -94.247542033
  9046.059645037   705.466544348   -100.013970929
  9125.359919949   705.451820870   -105.935529250
  9204.660194862   705.437097391   -112.005963219
  9283.960469775   705.422373913   -118.219018855
  9363.260744688   705.407650435   -124.568441974
  9442.561019601   705.392926957   -131.047978186
  9521.861294514   705.378203478   -137.651372896
  9601.161569426   705.363480000   -144.372371304
  9680.461844339   705.348756522   -151.204718405
  9759.762119252   705.334033043   -158.142158987
  9839.062394165   705.319309565   -165.178437633
  9918.362669078   705.304586087   -172.307298719
  9997.662943991   705.289862609   -179.522486413
  10076.963218903   705.275139130   -186.817744679
  10156.263493816   705.260415652   -194.186817270
  10235.563768729   705.245692174   -201.623447734
  10314.864043642   705.230968696   -209.121379410
  10394.164318555   705.216245217   -216.674355428
  10473.464593468   705.201521739   -224.276118712
  10552.764868380   705.186798261   -231.920411975
  10632.065143293   705.172074783   -239.600977720
  10711.365418206   705.157351304   -247.311558243
  10790.665693119   705.142627826   -255.045895629
  10869.965968032   705.127904348   -262.797731752
  10949.266242945   705.113180870   -270.560808277
  11028.566517857   705.098457391   -278.329334200
  11107.866792770   705.083733913   -286.099820226
  11187.167067683   705.069010435   -293.869484166
  11266.467342596   705.054286957   -301.635543931
  11345.767617509   705.039563478   -309.395217336
  11425.067892422   705.024840000   -317.145722102
  11504.368167334   705.010116522   -324.884275856
  11583.668442247   704.995393043   -332.608096130
  11662.968717160   704.980669565   -340.314400362
  11742.268992073   704.965946087   -348.000405896
  11821.569266986   704.951222609   -355.663329978
  11900.869541899   704.936499130   -363.300389763
  11980.169816811   704.921775652   -370.908802309
  12059.470091724   704.907052174   -378.485784578
  12138.770366637   704.892328696   -386.028553437
  12218.070641550   704.877605217   -393.534325659
  12297.370916463   704.862881739   -401.000317919
  12376.671191376   704.848158261   -408.423746797
  12455.971466288   704.833434783   -415.801828778
  12535.271741201   704.818711304   -423.131780249
  12614.572016114   704.803987826   -430.410817503
  12693.872291027   704.789264348   -437.636156735
  12773.172565940   704.774540870   -444.805014043
  12852.472840853   704.759817391   -451.914605430
  12931.773115765   704.745093913   -458.962146801
  13011.073390678   704.730370435   -465.944853965
  13090.373665591   704.715646957   -472.859942633
  13169.673940504   704.700923478   -479.704628418
  13248.974215417   704.686200000   -486.476126838
  13328.274490329   704.671476522   -493.171653311
  13407.574765242   704.656753043   -499.788423158
  13486.875040155   704.642029565   -506.323651605
  13566.175315068   704.627306087   -512.774553775
  13645.475589981   704.612582609   -519.138344696
  13724.775864894   704.597859130   -525.412239299
  13804.076139806   704.583135652   -531.593452413
  13883.376414719   704.568412174   -537.679198771
  13962.676689632   704.553688696   -543.666693006
  14041.976964545   704.538965217   -549.553149654
  14121.277239458   704.524241739   -555.335783150
  14200.577514371   704.509518261   -561.011807831
  14279.877789283   704.494794783   -566.578437934
  14359.178064196   704.480071304   -572.032887598
  14438.478339109   704.465347826   -577.372370861
  14517.778614022   704.450624348   -582.594101661
  14597.078888935   704.435900870   -587.695293839
  14676.379163848   704.421177391   -592.673161132
  14755.679438760   704.406453913   -597.524917179
  14834.979713673   704.391730435   -602.247775520
  14914.279988586   704.377006957   -606.838949592
  14993.580263499   704.362283478   -611.295652733
  15072.880538412   704.347560000   -615.615098180
  15152.180813325   704.332836522   -619.794499068
  15231.481088237   704.318113043   -623.831068433
  15310.781363150   704.303389565   -627.722019208
  15390.081638063   704.288666087   -631.464564226
  15469.381912976   704.273942609   -635.055916217
  15548.682187889   704.259219130   -638.493287812
  15627.982462802   704.244495652   -641.773891537
  15707.282737714   704.229772174   -644.894939819
  15786.583012627   704.215048696   -647.853644981
  15865.883287540   704.200325217   -650.647219243
  15945.183562453   704.185601739   -653.272874727
  16024.483837366   704.170878261   -655.727823447
  16103.784112279   704.156154783   -658.009277318
  16183.084387191   704.141431304   -660.114448150
  16262.384662104   704.126707826   -662.040547652
  16341.684937017   704.111984348   -663.784787429
  16420.985211930   704.097260870   -665.344378982
  16500.285486843   704.082537391   -666.716533710
  16579.585761756   704.067813913   -667.898462906
  16658.886036668   704.053090435   -668.887377763
  16738.186311581   704.038366957   -669.680489366
  16817.486586494   704.023643478   -670.275008700
  16896.786861407   704.008920000   -670.668146642
  16976.087136320   703.994196522   -670.857113967
  17055.387411233   703.979473043   -670.839521497
  17134.687686145   703.964749565   -670.615181400
  17213.987961058   703.950026087   -670.184658866
  17293.288235971   703.935302609   -669.548519756
  17372.588510884   703.920579130   -668.707329945
  17451.888785797   703.905855652   -667.661655323
  17531.189060710   703.891132174   -666.412061792
  17610.489335622   703.876408696   -664.959115268
  17689.789610535   703.861685217   -663.303381683
  17769.089885448   703.846961739   -661.445426979
  17848.390160361   703.832238261   -659.385817114
  17927.690435274   703.817514783   -657.125118062
  18006.990710186   703.802791304   -654.663895806
  18086.290985099   703.788067826   -652.002716347
  18165.591260012   703.773344348   -649.142145698
  18244.891534925   703.758620870   -646.082749886
  18324.191809838   703.743897391   -642.825094952
  18403.492084751   703.729173913   -639.369746952
  18482.792359663   703.714450435   -635.717271955
  18562.092634576   703.699726957   -631.868236045
  18641.392909489   703.685003478   -627.823205318
  18720.693184402   703.670280000   -623.582745886
  18799.993459315   703.655556522   -619.147423874
  18879.293734228   703.640833043   -614.517805422
  18958.594009140   703.626109565   -609.694456683
  19037.894284053   703.611386087   -604.677943826
  19117.194558966   703.596662609   -599.468833031
  19196.494833879   703.581939130   -594.067690497
  19275.795108792   703.567215652   -588.475082431
  19355.095383705   703.552492174   -582.691575060
  19434.395658617   703.537768696   -576.717734622
  19513.695933530   703.523045217   -570.554127370
  19592.996208443   703.508321739   -564.201319571
  19672.296483356   703.493598261   -557.659877508
  19751.596758269   703.478874783   -550.930367475
  19830.897033182   703.464151304   -544.013355784
  19910.197308094   703.449427826   -536.909408758
  19989.497583007   703.434704348   -529.619092738
  20068.797857920   703.419980870   -522.142974077
  20148.098132833   703.405257391   -514.481619143
  20227.398407746   703.390533913   -506.635594317
  20306.698682659   703.375810435   -498.605465998
  20385.998957571   703.361086957   -490.391800596
  20465.299232484   703.346363478   -481.995164537
  20544.599507397   703.331640000   -473.416124263
  20623.899782310   703.316916522   -464.655246227
  20703.200057223   703.302193043   -455.713096900
  20782.500332136   703.287469565   -446.590242766
  20861.800607048   703.272746087   -437.287250323
  20941.100881961   703.258022609   -427.804686086
  21020.401156874   703.243299130   -418.143116582
  21099.701431787   703.228575652   -408.303108355
  21179.001706700   703.213852174   -398.285227962
  21258.301981613   703.199128696   -388.090041975
  21337.602256525   703.184405217   -377.718116982
  21416.902531438   703.169681739   -367.170019584
  21496.202806351   703.154958261   -356.446316399
  21575.503081264   703.140234783   -345.547574058
  21654.803356177   703.125511304   -334.474359207
  21734.103631090   703.110787826   -323.227238508
  21813.403906002   703.096064348   -311.806778637
  21892.704180915   703.081340870   -300.213546286
  21972.004455828   703.066617391   -288.448108159
  22051.304730741   703.051893913   -276.511030979
  22130.605005654   703.037170435   -264.402881481
  22209.905280566   703.022446957   -252.124226416
  22289.205555479   703.007723478   -239.675632551
  22368.505830392   702.993000000   -227.057666667
  6616.901695652   705.938391304   -53.087347826
  6695.490724843   705.923664348   -50.994921874
  6774.079754033   705.908937391   -49.243751085
  6852.668783224   705.894210435   -47.827732422
  6931.257812415   705.879483478   -46.740762457
  7009.846841605   705.864756522   -45.976737371
  7088.435870796   705.850029565   -45.529552951
  7167.024899987   705.835302609   -45.393104596
  7245.613929177   705.820575652   -45.561287308
  7324.202958368   705.805848696   -46.027995700
  7402.791987559   705.791121739   -46.787123987
  7481.381016749   705.776394783   -47.832565993
  7559.970045940   705.761667826   -49.158215144
  7638.559075131   705.746940870   -50.757964473
  7717.148104321   705.732213913   -52.625706616
  7795.737133512   705.717486957   -54.755333811
  7874.326162703   705.702760000   -57.140737901
  7952.915191893   705.688033043   -59.775810330
  8031.504221084   705.673306087   -62.654442144
  8110.093250275   705.658579130   -65.770523988
  8188.682279465   705.643852174   -69.117946111
  8267.271308656   705.629125217   -72.690598360
  8345.860337847   705.614398261   -76.482370180
  8424.449367037   705.599671304   -80.487150618
  8503.038396228   705.584944348   -84.698828316
  8581.627425419   705.570217391   -89.111291516
  8660.216454609   705.555490435   -93.718428055
  8738.805483800   705.540763478   -98.514125369
  8817.394512991   705.526036522   -103.492270486
  8895.983542181   705.511309565   -108.646750034
  8974.572571372   705.496582609   -113.971450232
  9053.161600563   705.481855652   -119.460256895
  9131.750629753   705.467128696   -125.107055430
  9210.339658944   705.452401739   -130.905730839
  9288.928688135   705.437674783   -136.850167715
  9367.517717325   705.422947826   -142.934250243
  9446.106746516   705.408220870   -149.151862199
  9524.695775707   705.393493913   -155.496886951
  9603.284804897   705.378766957   -161.963207454
  9681.873834088   705.364040000   -168.544706257
  9760.462863279   705.349313043   -175.235265492
  9839.051892469   705.334586087   -182.028766886
  9917.640921660   705.319859130   -188.919091747
  9996.229950851   705.305132174   -195.900120975
  10074.818980041   705.290405217   -202.965735053
  10153.408009232   705.275678261   -210.109814054
  10231.997038423   705.260951304   -217.326237631
  10310.586067613   705.246224348   -224.608885027
  10389.175096804   705.231497391   -231.951635065
  10467.764125995   705.216770435   -239.348366153
  10546.353155185   705.202043478   -246.792956282
  10624.942184376   705.187316522   -254.279283025
  10703.531213567   705.172589565   -261.801223538
  10782.120242757   705.157862609   -269.352654555
  10860.709271948   705.143135652   -276.927452394
  10939.298301139   705.128408696   -284.519492950
  11017.887330329   705.113681739   -292.122651698
  11096.476359520   705.098954783   -299.731261284
  11175.065388710   705.084227826   -307.341906890
  11253.654417901   705.069500870   -314.951865648
  11332.243447092   705.054773913   -322.558414689
  11410.832476282   705.040046957   -330.158830957
  11489.421505473   705.025320000   -337.750391206
  11568.010534664   705.010593043   -345.330372002
  11646.599563854   704.995866087   -352.896049723
  11725.188593045   704.981139130   -360.444700555
  11803.777622236   704.966412174   -367.973600499
  11882.366651426   704.951685217   -375.480025361
  11960.955680617   704.936958261   -382.961250762
  12039.544709808   704.922231304   -390.414552129
  12118.133738998   704.907504348   -397.837204699
  12196.722768189   704.892777391   -405.226483521
  12275.311797380   704.878050435   -412.579663449
  12353.900826570   704.863323478   -419.894019147
  12432.489855761   704.848596522   -427.166825090
  12511.078884952   704.833869565   -434.395355556
  12589.667914142   704.819142609   -441.576884635
  12668.256943333   704.804415652   -448.708686223
  12746.845972524   704.789688696   -455.788034022
  12825.435001714   704.774961739   -462.812201543
  12904.024030905   704.760234783   -469.778462102
  12982.613060096   704.745507826   -476.684088822
  13061.202089286   704.730780870   -483.526354632
  13139.791118477   704.716053913   -490.302532266
  13218.380147668   704.701326957   -497.009894267
  13296.969176858   704.686600000   -503.645712977
  13375.558206049   704.671873043   -510.207260549
  13454.147235240   704.657146087   -516.691808938
  13532.736264430   704.642419130   -523.096629901
  13611.325293621   704.627692174   -529.418995004
  13689.914322812   704.612965217   -535.656175614
  13768.503352002   704.598238261   -541.805442901
  13847.092381193   704.583511304   -547.864067839
  13925.681410384   704.568784348   -553.829321206
  14004.270439574   704.554057391   -559.698473580
  14082.859468765   704.539330435   -565.468795344
  14161.448497956   704.524603478   -571.137556682
  14240.037527146   704.509876522   -576.702027579
  14318.626556337   704.495149565   -582.159477823
  14397.215585528   704.480422609   -587.507177002
  14475.804614718   704.465695652   -592.742394506
  14554.393643909   704.450968696   -597.862399525
  14632.982673100   704.436241739   -602.864461047
  14711.571702290   704.421514783   -607.745847865
  14790.160731481   704.406787826   -612.503828568
  14868.749760672   704.392060870   -617.135671545
  14947.338789862   704.377333913   -621.638644985
  15025.927819053   704.362606957   -626.010016876
  15104.516848244   704.347880000   -630.247055003
  15183.105877434   704.333153043   -634.347026950
  15261.694906625   704.318426087   -638.307200100
  15340.283935816   704.303699130   -642.124841632
  15418.872965006   704.288972174   -645.797218524
  15497.461994197   704.274245217   -649.321597550
  15576.051023387   704.259518261   -652.695245281
  15654.640052578   704.244791304   -655.915428084
  15733.229081769   704.230064348   -658.979412124
  15811.818110959   704.215337391   -661.884463358
  15890.407140150   704.200610435   -664.627847544
  15968.996169341   704.185883478   -667.206830230
  16047.585198531   704.171156522   -669.618676763
  16126.174227722   704.156429565   -671.860652282
  16204.763256913   704.141702609   -673.930021722
  16283.352286103   704.126975652   -675.824049810
  16361.941315294   704.112248696   -677.540001070
  16440.530344485   704.097521739   -679.075139816
  16519.119373675   704.082794783   -680.426730157
  16597.708402866   704.068067826   -681.592035995
  16676.297432057   704.053340870   -682.568321025
  16754.886461247   704.038613913   -683.352848731
  16833.475490438   704.023886957   -683.942882393
  16912.064519629   704.009160000   -684.335685080
  16990.653548819   703.994433043   -684.528519654
  17069.242578010   703.979706087   -684.519040669
  17147.831607201   703.964979130   -684.307058572
  17226.420636391   703.950252174   -683.893121311
  17305.009665582   703.935525217   -683.277777504
  17383.598694773   703.920798261   -682.461575795
  17462.187723963   703.906071304   -681.445064859
  17540.776753154   703.891344348   -680.228793395
  17619.365782345   703.876617391   -678.813310132
  17697.954811535   703.861890435   -677.199163825
  17776.543840726   703.847163478   -675.386903257
  17855.132869917   703.832436522   -673.377077240
  17933.721899107   703.817709565   -671.170234611
  18012.310928298   703.802982609   -668.766924238
  18090.899957489   703.788255652   -666.167695014
  18169.488986679   703.773528696   -663.373095861
  18248.078015870   703.758801739   -660.383675730
  18326.667045061   703.744074783   -657.199983597
  18405.256074251   703.729347826   -653.822568468
  18483.845103442   703.714620870   -650.251979377
  18562.434132633   703.699893913   -646.488765386
  18641.023161823   703.685166957   -642.533475584
  18719.612191014   703.670440000   -638.386659089
  18798.201220205   703.655713043   -634.048865048
  18876.790249395   703.640986087   -629.520642633
  18955.379278586   703.626259130   -624.802541048
  19033.968307777   703.611532174   -619.895109524
  19112.557336967   703.596805217   -614.798897319
  19191.146366158   703.582078261   -609.514453720
  19269.735395349   703.567351304   -604.042328044
  19348.324424539   703.552624348   -598.383069635
  19426.913453730   703.537897391   -592.537227866
  19505.502482921   703.523170435   -586.505352137
  19584.091512111   703.508443478   -580.287991878
  19662.680541302   703.493716522   -573.885696549
  19741.269570493   703.478989565   -567.299015636
  19819.858599683   703.464262609   -560.528498655
  19898.447628874   703.449535652   -553.574695150
  19977.036658064   703.434808696   -546.438154696
  20055.625687255   703.420081739   -539.119426893
  20134.214716446   703.405354783   -531.619061373
  20212.803745636   703.390627826   -523.937607797
  20291.392774827   703.375900870   -516.075615853
  20369.981804018   703.361173913   -508.033635259
  20448.570833208   703.346446957   -499.812215762
  20527.159862399   703.331720000   -491.411907138
  20605.748891590   703.316993043   -482.833259192
  20684.337920780   703.302266087   -474.076821760
  20762.926949971   703.287539130   -465.143144704
  20841.515979162   703.272812174   -456.032777917
  20920.105008352   703.258085217   -446.746271322
  20998.694037543   703.243358261   -437.284174870
  21077.283066734   703.228631304   -427.647038543
  21155.872095924   703.213904348   -417.835412350
  21234.461125115   703.199177391   -407.849846332
  21313.050154306   703.184450435   -397.690890558
  21391.639183496   703.169723478   -387.359095126
  21470.228212687   703.154996522   -376.855010167